/*--------------------------------*- C++ -*----------------------------------*\
  =========                 |
  \\      /  F ield         | OpenFOAM: The Open Source CFD Toolbox
   \\    /   O peration     | Website:  https://openfoam.org
    \\  /    A nd           | Version:  8
     \\/     M anipulation  |
\*---------------------------------------------------------------------------*/
/*   Windows 32 and 64 bit porting by blueCAPE: http://www.bluecape.com.pt   *\
|  Based on Windows porting (2.0.x v4) by Symscape: http://www.symscape.com   |
\*---------------------------------------------------------------------------*/
FoamFile
{
    version     2.0;
    format      ascii;
    class       volScalarField;
    location    "0/Air_Fluid";
    object      facesAgglomeration;
}
// * * * * * * * * * * * * * * * * * * * * * * * * * * * * * * * * * * * * * //

dimensions      [0 0 0 0 0 0 0];

internalField   uniform 0;

boundaryField
{
    Inlet
    {
        type            calculated;
        value           nonuniform List<scalar> 
72
(
0
0
0
0
0
0
0
0
1
1
1
1
1
1
1
1
2
2
2
2
2
2
1
1
1
1
1
1
1
1
3
3
3
3
3
3
3
3
2
2
2
2
2
2
2
2
0
0
0
0
0
4
4
4
4
4
4
4
4
4
4
4
4
4
3
3
3
3
3
3
3
3
)
;
    }
    Outlet
    {
        type            calculated;
        value           nonuniform List<scalar> 10(5 6 6 6 5 6 6 5 5 6);
    }
    Air_Boundaries
    {
        type            calculated;
        value           nonuniform List<scalar> 
838
(
7
8
7
9
10
11
12
10
13
14
15
16
17
18
19
18
20
20
19
17
21
22
21
22
23
24
14
14
23
25
25
25
26
26
27
28
27
29
30
31
32
33
34
29
34
29
33
35
31
36
30
37
38
36
31
39
40
41
37
41
36
42
43
44
45
46
46
45
47
42
48
49
43
50
51
47
52
52
53
53
54
55
12
12
11
10
56
57
56
58
59
60
61
62
63
64
65
66
66
67
68
69
70
71
72
73
74
73
75
74
76
77
78
79
80
81
72
82
82
75
83
84
79
81
80
79
83
83
78
80
80
85
86
87
88
89
90
91
92
54
54
55
53
93
93
94
95
94
96
96
97
98
97
99
99
100
101
101
101
100
102
102
95
103
103
93
104
105
106
107
108
109
110
111
112
113
114
115
116
113
117
118
118
115
119
112
120
117
116
121
122
123
124
125
126
127
128
129
130
131
131
132
133
134
135
136
134
137
135
138
139
140
141
142
86
85
141
143
89
144
145
144
91
92
146
147
148
149
150
151
152
153
154
155
122
156
156
104
106
126
108
106
124
110
129
128
98
98
97
96
133
132
133
131
157
157
158
159
158
159
160
159
157
160
161
161
162
163
164
164
165
166
166
167
168
169
170
171
172
171
173
168
173
170
174
174
175
176
176
168
163
162
161
163
177
178
179
180
180
148
181
152
153
179
182
183
184
183
185
178
186
182
187
150
185
181
184
186
182
188
189
189
190
190
187
191
191
192
193
192
194
143
142
121
195
130
195
127
196
197
123
196
194
198
145
199
200
201
196
202
198
200
202
203
125
201
202
199
197
203
146
146
204
204
165
205
205
205
68
70
71
70
138
206
207
207
137
208
140
77
81
76
209
210
211
212
213
212
213
211
214
215
84
216
210
215
84
209
214
212
216
60
217
147
151
217
62
58
149
60
155
154
64
28
218
219
219
218
220
221
220
222
221
223
224
225
224
226
227
228
223
228
229
230
227
226
227
231
225
230
232
223
231
233
136
234
235
235
236
236
139
177
237
238
237
169
239
240
241
167
242
243
244
243
245
244
246
245
247
246
240
248
242
249
249
172
241
175
250
251
252
252
251
250
247
248
253
254
255
255
256
256
253
257
258
258
259
254
257
260
239
259
260
247
260
13
261
262
16
263
15
264
265
264
262
266
265
263
24
267
261
24
265
266
267
268
269
268
270
270
271
272
271
87
67
273
274
273
274
90
88
69
71
269
275
275
193
276
193
191
276
277
206
278
277
278
208
279
279
9
9
280
280
8
281
282
282
233
283
282
185
234
283
188
281
188
177
284
285
284
286
287
286
287
288
288
289
289
290
291
292
293
292
294
294
293
295
296
297
297
296
293
298
299
300
299
300
238
238
237
301
302
301
303
304
303
305
305
306
307
308
308
306
309
309
292
298
65
310
310
49
119
311
49
311
50
120
44
304
312
312
305
105
313
313
295
109
107
297
111
314
315
40
316
314
317
39
318
319
320
35
32
321
322
38
319
323
317
316
320
324
321
325
322
272
272
271
270
59
307
61
61
61
63
309
65
326
327
328
326
329
327
329
330
302
331
331
222
332
332
333
333
334
334
335
336
335
337
338
337
339
340
340
341
342
343
344
342
341
344
345
346
347
348
349
350
351
352
353
354
355
328
356
356
357
357
330
48
358
45
51
359
330
360
359
51
360
358
361
362
362
336
363
336
334
363
338
337
338
362
361
361
364
365
365
57
366
366
367
232
354
351
349
229
368
369
368
369
370
347
346
371
348
372
368
367
373
347
371
343
370
372
373
374
355
353
324
374
325
353
323
352
350
314
375
345
318
376
375
376
315
339
340
339
364
365
364
377
377
378
289
291
290
291
285
379
379
378
380
380
381
382
382
382
381
383
383
114
)
;
    }
    Air_Fluid_to_region17
    {
        type            calculated;
        value           nonuniform List<scalar> 
2162
(
384
385
385
386
386
387
387
388
389
390
391
392
393
394
395
396
397
398
399
400
401
402
403
404
405
406
407
408
409
410
400
411
412
413
414
415
416
417
418
419
420
421
422
423
424
425
426
427
428
429
430
431
432
433
434
435
436
437
438
439
440
433
441
442
443
444
399
445
446
396
447
448
449
450
451
452
453
435
454
455
456
457
458
459
460
461
462
463
464
465
466
467
468
469
470
471
472
473
474
475
476
477
478
479
480
481
482
483
484
485
486
487
488
489
490
491
492
493
494
495
496
497
498
499
500
501
502
503
504
505
506
507
494
508
509
510
492
511
512
490
513
514
515
516
504
517
437
518
519
520
521
522
523
524
525
526
527
528
529
530
531
451
532
533
534
535
536
537
538
539
540
541
542
543
544
545
546
547
548
549
423
550
551
552
553
554
555
556
557
558
559
438
560
434
561
481
562
563
564
430
565
566
567
568
569
570
571
572
573
574
575
576
577
389
578
579
580
581
582
583
584
585
436
586
587
588
589
589
590
450
591
592
593
594
595
572
596
597
598
599
600
601
602
603
604
605
606
552
607
593
608
609
610
611
612
613
614
537
615
609
616
617
445
618
619
620
621
559
622
623
624
625
626
627
628
629
630
631
632
633
634
635
636
637
638
607
639
443
640
641
642
643
644
645
646
647
648
649
650
651
652
653
592
654
655
656
657
658
659
660
661
584
662
663
441
661
664
665
666
541
558
536
667
457
668
669
431
670
671
672
673
674
675
676
677
678
679
505
680
681
682
683
679
684
685
518
686
644
517
687
671
688
689
690
691
600
692
693
694
695
563
696
697
449
698
699
700
701
702
617
703
704
432
705
474
543
693
706
707
708
709
710
538
711
712
713
714
715
709
716
717
718
677
620
425
719
720
721
722
723
724
725
637
726
727
728
401
729
730
731
732
455
733
734
735
736
737
498
738
739
701
740
741
742
743
477
744
745
736
746
747
748
749
750
452
751
752
753
754
503
662
755
756
757
758
524
759
760
761
762
763
764
765
766
767
768
746
769
703
770
390
771
772
521
773
774
461
460
751
590
775
776
777
778
779
780
781
782
751
783
784
785
786
787
785
787
456
788
789
790
791
792
793
794
795
796
797
658
648
798
658
799
800
801
802
803
804
805
806
807
808
809
641
548
810
811
812
812
408
813
687
814
568
815
816
817
818
819
653
512
820
821
822
823
824
825
826
442
827
828
829
819
830
421
762
831
830
832
833
782
834
771
835
836
837
488
838
839
540
770
840
789
623
841
842
843
844
840
845
846
734
847
848
849
392
702
647
850
403
809
851
852
853
854
855
422
713
856
857
788
858
859
860
779
596
861
665
803
862
404
863
656
864
865
650
801
509
866
852
867
868
869
869
867
870
613
546
871
872
873
874
875
866
876
877
657
414
878
879
880
831
881
766
882
621
883
549
884
885
886
887
888
397
889
545
890
891
892
893
894
407
895
896
881
897
857
633
844
898
724
454
594
489
899
674
900
764
901
664
901
902
817
897
903
904
750
905
906
907
908
649
909
910
586
911
759
604
912
567
416
571
913
914
915
916
917
695
918
915
919
863
920
617
921
922
707
467
923
574
924
925
926
927
864
636
406
892
928
929
930
931
932
616
933
928
499
934
596
763
422
935
936
937
938
417
884
939
940
941
942
943
692
944
945
755
946
947
948
797
651
949
950
946
946
487
951
952
953
793
954
560
760
719
601
758
390
955
597
814
697
956
957
605
958
959
960
961
962
962
535
652
843
963
596
486
964
469
961
965
611
966
967
968
969
834
765
970
472
971
820
475
868
905
651
828
428
972
973
974
975
646
573
775
976
821
471
461
977
521
878
978
979
963
980
826
981
666
982
752
983
984
768
985
791
986
987
667
988
810
989
990
991
594
476
992
993
994
995
996
825
997
484
980
998
567
859
944
999
1000
1001
879
886
836
854
402
923
568
772
971
421
1002
539
1003
990
483
1004
579
808
1005
562
1006
1007
848
446
1008
1009
1010
921
885
925
765
556
675
1011
493
517
891
987
732
1012
968
1013
1014
910
522
618
607
888
1015
992
1016
1017
1018
612
1019
1020
861
1021
412
588
979
897
1022
1002
500
1023
1024
1023
624
743
730
420
629
904
837
1025
449
1026
841
1026
672
553
673
933
448
1027
758
697
1028
932
1029
1030
883
710
466
1031
1032
398
570
702
501
422
953
619
1033
754
904
1014
850
1007
773
578
655
967
593
660
402
1034
686
405
642
694
391
742
698
1035
1035
1036
1037
1038
711
997
1036
872
1039
419
417
398
1035
551
876
813
1040
725
735
675
790
659
560
395
712
704
1041
676
1042
835
731
874
1043
396
1044
1045
1046
814
514
1047
1001
805
654
1048
1049
669
593
1050
873
438
1051
614
806
1052
550
929
1053
1054
805
566
1055
1056
944
955
496
944
1046
390
608
462
1057
580
966
410
715
798
1024
619
523
856
943
1058
999
683
793
729
1059
1060
796
516
979
858
1061
1062
1063
527
849
582
577
1003
905
1064
531
1065
948
842
902
465
1066
491
1067
1068
1069
1061
542
811
1032
1070
1071
466
1072
615
982
861
734
1073
1047
458
1019
1074
741
802
1075
495
907
919
1013
557
547
1076
939
893
444
1072
561
853
769
950
1031
1060
1077
982
598
583
1078
429
429
528
708
1079
778
824
792
916
1080
1081
934
973
922
1082
1083
1045
457
761
1084
1085
1086
1049
1083
924
1017
575
890
640
885
1050
1018
1080
937
862
1007
875
392
1087
415
846
1088
1089
576
418
1090
1029
542
484
865
1091
839
834
439
1037
1077
1092
882
1093
468
1092
994
1094
930
728
857
696
447
1032
393
1095
843
427
721
1055
1033
946
1096
533
800
414
630
749
1067
860
908
626
871
1097
1097
1098
700
1099
507
1100
824
529
1011
958
1066
969
816
497
1070
424
1086
699
633
645
1081
942
466
903
1101
1102
1102
745
1103
520
1102
1104
605
423
513
1006
1105
1043
717
526
963
985
599
777
827
643
426
682
984
1096
1106
614
1058
1071
1082
554
784
998
1107
718
829
781
706
1108
1005
799
635
507
983
639
1098
756
918
1109
1052
1099
515
1038
627
410
534
909
887
820
478
505
754
1044
851
1110
514
1111
995
993
978
1059
1112
587
943
610
900
632
970
991
1113
1114
554
555
926
1115
1116
1076
822
606
602
726
1117
506
435
1062
511
1021
1064
690
576
729
983
1100
1105
757
404
974
860
899
678
1118
1119
1120
917
461
482
1118
954
733
1005
479
1121
1122
931
1123
959
1068
527
1057
1030
459
633
674
1124
1124
1122
575
756
533
583
914
688
1125
1033
1000
480
561
1126
747
781
1127
1115
714
622
755
413
870
1128
1129
1129
1113
1130
1130
1131
1132
1133
1134
1131
1120
1135
1136
1137
1136
1138
1139
1139
1138
1107
1106
1140
1141
1108
1142
1143
499
510
510
1144
1145
1145
585
1146
1146
499
1147
1087
1144
1147
1117
1117
877
689
1148
1148
1149
1149
525
1040
581
826
826
1053
1150
1150
1053
1151
1065
1151
1065
1152
713
1153
564
1152
1153
767
1154
767
1154
964
1155
1155
574
1155
411
823
1156
1008
1157
569
1156
1157
1041
906
508
585
1158
1015
1158
1159
780
1160
1160
1160
1161
1161
1122
832
738
1162
1162
1084
1163
1163
600
894
1112
1164
1165
1164
976
1010
1166
668
668
1110
1167
1167
774
783
1168
394
1169
936
1170
1169
1171
977
1009
875
838
947
748
838
970
737
1091
845
1013
665
815
804
1114
1114
1048
715
1140
776
1112
1165
1172
1089
1173
1172
1173
1166
1174
1174
996
663
1174
1126
1143
989
1175
1175
935
783
698
1176
1059
1177
1177
691
472
1178
1179
1179
1178
464
1180
1180
1181
1181
680
680
1042
972
972
911
716
1182
1182
792
1183
1182
1184
952
1183
1185
1186
1185
653
952
722
1028
1186
634
638
913
913
1004
1187
1188
1187
1188
740
1025
1111
1111
403
1123
1189
1189
889
681
1078
1090
794
1094
1190
1191
705
1192
1193
1192
1022
1190
1194
1195
1196
1197
1195
1194
1196
1198
723
631
1199
1200
1201
1198
1202
1199
1203
1201
912
1202
1204
1203
912
1205
1204
1205
1206
1207
1207
1206
1206
1184
753
1208
1208
1093
1049
1093
519
1209
1210
502
1210
1067
1211
1212
938
1012
1213
832
1067
1075
818
613
1214
1215
1214
1216
1216
1069
1217
1069
1217
1217
670
847
895
941
685
1056
1218
1211
1219
1220
1221
982
1220
940
1222
1222
1222
1223
1223
1224
833
1016
1104
1225
1225
941
1218
1101
1003
470
1085
1054
684
1226
1226
1224
1224
744
1092
896
1085
1227
880
470
1227
1228
1229
1229
1230
1231
1229
1231
1232
1233
1230
1232
988
717
1234
1235
1235
1236
1237
544
544
739
1238
1238
1239
1240
1240
1241
1241
1242
1243
1243
1244
1244
1245
1245
1246
1247
837
1248
1247
1248
1249
1250
1250
1133
1251
1127
1109
1109
1252
463
1253
565
473
1254
1255
1256
1256
898
517
727
1257
631
1258
1258
1095
485
530
1134
1142
927
1259
989
565
1251
1197
1197
1200
1260
1212
1239
1075
1215
1221
1261
1228
1233
1237
1262
1141
1263
1159
628
1168
1264
1264
1170
453
1265
720
1266
1236
1267
1268
1119
1240
591
1103
1253
1253
1269
1269
1270
1088
1271
1272
1273
1274
1274
975
975
1275
1275
1276
1277
1277
807
1273
1278
1279
1027
1280
1261
1281
1281
1270
1282
1282
1125
1276
855
1283
1116
1284
1284
1285
1285
1286
1271
1287
1288
945
945
1289
1290
1240
1110
1051
1291
1291
1292
1292
1034
1171
1293
1293
960
1294
1294
1295
1296
957
1297
1297
1298
1298
918
1299
1299
1299
1299
1300
1300
1301
1302
1303
1301
1304
1304
440
1305
1305
1306
1063
1073
1307
1307
1249
837
1308
1308
1259
1159
1309
1309
1309
1310
1309
1311
1241
1311
1191
595
1312
1254
1313
1209
1255
1314
1213
1315
1316
1317
1103
795
1234
1234
1263
1246
1223
1211
1221
1318
1318
1140
1252
1135
1319
1319
1135
1279
1074
1266
1320
1022
1288
1260
1321
1137
1127
1125
1257
1322
1322
1323
532
1324
1278
1325
1325
409
409
1326
1327
1327
1326
1290
603
1328
1328
1329
1329
1079
1289
1321
1287
1330
1330
1331
1286
1283
1332
1333
1334
1334
1335
986
1335
1272
1291
1265
1310
1265
1310
1336
1337
1337
1336
1338
920
1338
1132
1129
1128
1339
1339
1340
1340
1341
1341
1341
1341
1302
1303
1303
1342
1343
1343
1314
1315
1315
1296
1295
1295
1296
1344
1344
1345
1345
795
1317
388
1267
1262
1176
1346
625
1346
1143
965
965
956
1319
1134
1120
1306
1347
1347
1347
1313
1348
1348
1349
1349
1349
1193
1320
958
1322
1020
1331
1219
1333
1324
1280
1280
969
1328
384
1039
1039
1323
1332
1268
1350
1350
1077
1121
981
981
786
1351
1351
951
1316
1352
1352
958
1353
1353
1353
1353
1242
1354
1354
949
949
1312
1342
1342
)
;
    }
    Air_Fluid_to_region8
    {
        type            calculated;
        value           nonuniform List<scalar> 
2198
(
1355
1356
1357
1358
1359
1360
1361
1362
1363
1364
1365
1366
1362
1367
1368
1369
1370
1371
1372
1373
1374
1375
1376
1377
1378
1379
1380
1381
1382
1383
1384
1385
1386
1387
1388
1389
1390
1369
1391
1392
1393
1394
1395
1396
1397
1398
1399
1400
1401
1402
1403
1404
1405
1406
1407
1408
1409
1410
1411
1412
1413
1414
1415
1416
1417
1418
1419
1406
1420
1421
1422
1423
1424
1425
1426
1427
1428
1429
1430
1431
1432
1433
1434
1435
1409
1436
1437
1438
1439
1440
1441
1442
1443
1444
1393
1445
1397
1446
1447
1448
1449
1450
1451
1452
1447
1453
1454
1455
1456
1457
1458
1459
1460
1461
1462
1463
1464
1465
1466
1467
1453
1468
1469
1470
1471
1407
1425
1472
1473
1474
1475
1476
1477
1396
1478
1479
1480
1481
1482
1483
1484
1485
1486
1487
1488
1489
1490
1491
1492
1493
1494
1494
1484
1495
1496
1497
1498
1499
1392
1500
1501
1502
1503
1504
1505
1506
1507
1508
1509
1510
1511
1512
1513
1509
1498
1477
1514
1395
1462
1515
1516
1517
1518
1424
1519
1520
1521
1522
1523
1524
1525
1526
1527
1503
1403
1528
1529
1530
1531
1532
1533
1534
1535
1536
1537
1487
1538
1539
1540
1541
1542
1543
1544
1370
1545
1546
1547
1548
1549
1550
1551
1552
1553
1554
1463
1555
1556
1557
1558
1559
1560
1561
1378
1562
1563
1555
1412
1564
1565
1566
1567
1568
1569
1570
1571
1572
1573
1574
1575
1576
1577
1578
1410
1579
1580
1581
1543
1582
1583
1439
1458
1584
1585
1586
1587
1588
1589
1590
1549
1591
1366
1590
1592
1593
1594
1595
1596
1597
1598
1374
1599
1600
1601
1602
1507
1603
1604
1605
1361
1606
1596
1607
1608
1609
1610
1611
1382
1552
1612
1613
1614
1615
1616
1617
1442
1618
1596
1619
1620
1621
1512
1622
1623
1624
1625
1626
1627
1628
1629
1630
1626
1457
1461
1631
1632
1633
1634
1478
1635
1636
1637
1638
1639
1640
1641
1642
1643
1644
1645
1646
1647
1637
1648
1518
1504
1421
1649
1650
1651
1652
1653
1654
1655
1656
1657
1658
1659
1660
1597
1444
1661
1436
1662
1663
1664
1588
1665
1666
1479
1667
1668
1669
1576
1670
1671
1672
1673
1674
1675
1655
1676
1566
1677
1678
1679
1593
1680
1681
1674
1682
1683
1618
1684
1685
1686
1666
1687
1688
1689
1690
1691
1692
1541
1693
1694
1532
1695
1696
1697
1697
1698
1699
1700
1701
1664
1702
1477
1703
1652
1704
1682
1705
1417
1706
1540
1707
1363
1708
1709
1710
1472
1711
1712
1497
1404
1713
1548
1561
1485
1714
1715
1716
1715
1717
1364
1718
1719
1390
1720
1721
1722
1632
1723
1724
1725
1726
1727
1728
1729
1570
1730
1731
1718
1732
1733
1734
1735
1625
1736
1737
1738
1739
1740
1741
1742
1739
1619
1743
1744
1745
1746
1747
1599
1748
1749
1495
1750
1398
1751
1752
1753
1754
1755
1568
1756
1757
1577
1758
1759
1760
1486
1761
1762
1763
1764
1765
1419
1579
1766
1531
1767
1711
1768
1769
1770
1492
1598
1771
1443
1772
1773
1614
1774
1775
1776
1561
1777
1624
1778
1779
1780
1781
1546
1743
1686
1401
1782
1783
1784
1785
1602
1786
1572
1490
1787
1788
1627
1616
1789
1520
1790
1534
1791
1792
1793
1794
1753
1644
1795
1796
1797
1606
1798
1799
1433
1800
1801
1795
1802
1803
1516
1804
1430
1805
1710
1806
1807
1808
1809
1810
1595
1811
1535
1610
1812
1432
1813
1744
1814
1801
1815
1816
1817
1720
1818
1819
1820
1821
1685
1822
1814
1823
1493
1824
1446
1825
1450
1826
1827
1828
1829
1830
1831
1832
1833
1510
1834
1835
1750
1836
1837
1838
1762
1839
1752
1505
1840
1841
1806
1842
1642
1843
1844
1845
1756
1846
1776
1847
1848
1849
1850
1851
1819
1852
1512
1464
1853
1854
1855
1856
1857
1858
1682
1859
1575
1860
1861
1845
1862
1863
1728
1517
1755
1864
1865
1866
1659
1709
1867
1868
1869
1870
1871
1843
1456
1872
1873
1874
1875
1876
1877
1878
1879
1358
1737
1712
1880
1761
1508
1881
1882
1483
1883
1524
1884
1885
1886
1597
1687
1887
1888
1889
1890
1722
1891
1892
1385
1689
1893
1695
1894
1895
1445
1389
1896
1897
1523
1898
1440
1824
1899
1387
1785
1588
1840
1900
1802
1901
1465
1657
1902
1903
1904
1869
1905
1906
1454
1907
1908
1376
1373
1909
1721
1693
1567
1910
1589
1830
1911
1912
1913
1914
1915
1916
1917
1918
1613
1902
1919
1375
1920
1921
1922
1551
1923
1860
1924
1925
1926
1862
1422
1473
1826
1923
1792
1638
1927
1928
1683
1633
1707
1929
1930
1931
1668
1810
1908
1583
1932
1675
1933
1898
1911
1934
1935
1936
1937
1938
1939
1885
1940
1722
1941
1941
1942
1943
1661
1944
1522
1601
1366
1945
1946
1788
1947
1672
1948
1794
1949
1946
1799
1450
1841
1901
1950
1951
1952
1953
1954
1955
1956
1957
1436
1958
1738
1815
1812
1835
1631
1959
1907
1960
1961
1768
1763
1938
1962
1963
1964
1527
1623
1965
1966
1967
1449
1383
1968
1556
1969
1970
1550
1971
1972
1639
1973
1974
1975
1670
1936
1611
1976
1960
1691
1977
1978
1919
1431
1979
1539
1542
1368
1980
1643
1584
1872
1641
1964
1688
1981
1891
1982
1796
1513
1759
1604
1983
1984
1985
1961
1598
1774
1617
1721
1986
1808
1957
1987
1853
1988
1895
1989
1990
1991
1992
1771
1838
1549
1744
1702
1993
1955
1994
1372
1376
1873
1947
1587
1705
1995
1748
1659
1434
1949
1696
1996
1997
1761
1998
1999
1730
1813
1464
2000
1471
2001
1874
2002
1837
1706
2002
2003
2004
1968
2002
2005
2003
1984
2006
1913
2007
1977
1954
1976
2008
1942
2009
1380
1528
1858
1662
1851
2010
2011
1514
1640
2012
2013
2014
1448
1934
1812
1578
2015
1861
1825
1945
2016
1741
2017
1732
1760
1987
2018
1733
2019
1594
1612
1528
2008
1886
1388
2020
2021
2007
2022
1821
2023
2024
1986
1846
1917
2025
1742
1961
2026
1947
2027
1604
1586
1944
1560
1678
1780
1820
2028
1878
1540
1878
1471
1758
2029
1991
1818
1804
2030
1460
1660
2030
1506
1780
1778
2031
1992
1850
1857
1553
2032
1385
1906
2033
2034
2035
1868
1628
1591
2036
1563
2019
1931
1468
2037
2038
2039
1842
2023
1653
2040
1423
1596
1717
2041
1612
1834
2042
1554
1708
1766
2043
1466
1442
1694
1988
2044
1724
1416
1726
1892
1965
2045
2046
2047
1870
1564
2048
1803
1822
1377
1629
1959
2040
1499
2032
2018
1435
2049
1828
1453
2050
1817
1717
1865
2051
1563
1489
2052
1897
2053
2001
1384
2054
2055
1978
2056
1533
1469
1925
1922
2057
1622
1857
2037
1474
2058
2059
2060
2061
1530
1798
2062
2063
1920
2064
1806
2065
2066
1515
1716
2001
2067
1526
1749
1427
2068
2059
1667
1757
1648
1909
1879
1803
2063
1571
2069
1360
2070
2025
1451
1949
2071
2071
1893
2072
2073
1505
2074
1953
1859
1982
1985
1723
1969
2075
2005
1399
2076
1770
1995
1435
1437
1970
2077
2078
1480
1438
2079
2068
2080
2081
2079
2057
2082
2083
1765
1679
1400
1816
1671
2038
1772
1993
1833
2072
1747
1534
2084
1773
1515
1851
1726
1926
2085
2086
1861
1502
2086
1836
2087
1924
1412
1496
1807
2088
1607
1545
1467
2089
1676
2033
1501
2073
2090
1381
1700
1736
2091
1634
1519
2092
1916
1903
1902
1979
1725
1907
1922
1641
1688
1941
1764
1998
2093
2089
2043
1783
1970
1558
2094
1628
2095
1937
1402
1888
1904
2047
2053
2096
2051
2095
1610
2097
1729
2004
1864
2094
1981
1933
2098
1567
2099
2036
1665
1538
1986
2092
2015
1651
2085
2100
2083
2101
2102
1484
1428
2103
1765
1583
1793
1807
2061
1971
2014
1839
1673
1496
2097
1862
1811
1713
1927
1751
1647
1574
1849
2081
2056
2104
1767
1525
2105
2106
1802
1757
1758
2104
2099
2087
1886
2070
1740
2030
2067
1545
1491
1769
1727
2107
1989
1469
2108
1621
1714
1888
1784
1379
2109
1776
2013
2104
1967
2019
1790
2035
2062
1775
1905
1831
2103
2084
1956
1581
2074
2066
1411
2110
2026
2026
1481
1476
1999
1817
1989
1580
1951
1684
1504
1690
2109
1545
2111
2112
1983
2113
2112
2042
1701
1939
1731
1497
1990
1806
1785
1761
1605
1797
1814
1687
2045
1436
1704
1844
1800
1608
1636
2093
2096
1681
1517
2064
2000
1996
1414
1918
2114
1787
2055
1559
1365
1600
2115
2115
1585
1470
2116
1420
1582
2041
2117
1789
1828
1698
1732
1703
1604
1440
1896
1592
1823
1823
1929
1854
1887
2060
1521
1997
1357
2084
1963
1779
1562
1785
1669
1488
1452
2049
1692
2118
2119
2120
2119
2120
2120
1371
2121
2122
1894
2123
2122
2121
2124
2123
2116
2125
2124
2124
2126
2091
2127
2091
1980
1511
2128
1511
2128
2129
2129
2130
1455
2131
2017
1529
1943
2132
2132
1966
2133
2131
1529
1777
1630
1880
1630
1883
1630
1883
1609
2065
1706
1387
2060
2106
1620
1558
1558
2134
2134
1791
1603
1615
2135
2135
1948
1734
2039
1429
1882
1935
1704
1573
2016
1569
2136
1921
1547
1754
1530
2137
2133
1889
1641
2137
1848
2058
2138
2139
2139
2027
2138
2140
2140
2140
1884
2141
2142
2006
2143
2143
2143
1932
1832
1654
1719
1719
1900
2052
1930
2051
1832
1863
1401
1355
2136
2144
2144
2145
2145
2145
2141
2146
2147
2148
2149
2150
2151
2151
2077
2148
2152
2152
2153
2078
2150
2147
2147
1544
1745
2154
2154
2155
2080
2156
2157
2158
2158
2157
2141
2146
1915
2021
1408
1482
1958
1536
2159
1805
2159
1649
1805
1649
2160
2160
1871
1500
1829
2161
1950
2161
2162
2162
1495
2136
2145
1962
1847
1928
2163
2163
1475
1650
1781
1781
1847
2164
2165
1367
2166
2167
2130
2168
2168
2168
2010
2169
2169
2077
1418
1899
1856
2069
2170
2170
2171
2172
2173
2174
2173
2174
2173
2175
2175
2176
2165
2176
2165
2177
2178
2107
2102
1658
2178
2178
1843
2179
1852
2180
2181
2179
2180
1557
1746
2181
2182
2182
2183
2184
2088
1867
2185
2185
2183
1655
2185
1655
1537
2186
2186
2186
1972
1426
1975
1711
1972
1972
1386
2187
1391
1391
2046
2022
2188
2188
2189
2189
2054
2190
1506
2191
2190
2192
2054
2193
1415
1646
2191
2192
2194
2193
2075
1415
2195
2194
2196
2195
2197
2198
2197
2198
2198
2199
2101
2199
2199
1866
1782
1459
1441
1405
1441
2200
2200
2184
1914
2064
2012
2201
2202
2202
2201
2203
1735
1735
2090
1565
2011
1656
2204
2205
2142
2142
1656
1876
1875
2050
1700
2187
2187
1680
2196
2206
2196
2050
2206
2206
2117
2024
2207
2207
1478
2208
2208
2204
2209
2209
2210
2211
2212
2213
2210
1881
2214
2213
1394
2214
2215
1767
2215
1912
2216
2216
2082
2082
1677
1929
1809
1645
2048
1635
1635
2217
1356
2048
1994
1413
2217
2218
1934
2218
2219
2220
2221
1872
2221
2153
2114
2222
2222
2149
2223
2149
2223
1686
2155
2224
2225
2225
2226
2226
2226
1890
2227
2227
2228
2172
2229
2229
2229
2230
2230
2231
2230
2231
2232
2233
2234
2233
2127
2235
2125
2127
2236
2237
2237
2238
2116
2239
2240
2240
2241
2241
2202
2203
2242
1506
2242
2009
2156
2172
2201
2177
2164
2243
2118
2238
2171
2228
2228
2244
2243
2221
2220
2244
2245
2034
2246
2247
2248
2098
2249
2249
2113
2250
2251
2252
2253
2254
1540
2255
2255
2256
2245
2257
2100
2258
2259
2259
2260
2227
2261
2261
2262
2262
2263
2263
2264
1859
2265
2265
1827
2028
2266
2266
2031
2267
2268
2269
2020
2270
2270
1961
2271
2110
2272
1855
2273
2274
2274
1786
2275
2275
2276
2276
2277
2277
2278
2279
2279
2280
2280
2281
2281
2236
2236
2127
2150
1686
2282
2282
2224
2167
2283
2284
2285
2285
2286
2287
2205
1913
2288
2288
2289
2289
2290
2291
2211
2239
1851
2292
2292
2293
2293
2166
2294
2248
2247
1855
2252
2252
2295
2295
2031
2246
2296
2296
2297
2297
2298
1940
1827
2299
1359
1359
2029
2300
2300
2301
2301
2283
2283
1663
2302
2302
1973
1877
2260
2303
2303
2304
2304
2305
2268
2305
2250
2111
2306
2306
2307
2307
2308
2308
2271
2271
2105
2309
2309
1974
2272
1894
2125
2310
2310
2234
2234
2311
2311
2282
2312
2312
2312
2313
2285
2314
2315
2315
2287
2232
2232
1559
2257
2316
2316
2080
2317
1910
2318
2318
2238
2319
2167
2320
2320
2320
2320
2321
2321
2322
2322
2323
2323
2324
2324
1859
2256
2251
2325
2294
2258
2326
2254
2034
2327
2269
2296
2267
2076
2327
2328
2299
2329
2329
1601
2253
2044
2330
2330
2326
2326
2331
2331
2219
2319
2319
2273
2298
2325
2244
2332
2332
2278
2333
2333
2334
2334
1952
2028
1430
2335
2335
2336
2336
2108
2337
2337
2337
1786
2338
2235
2338
2339
2339
2080
1890
2290
2291
2115
1699
2317
2321
2340
2340
2212
2126
2284
2313
2313
2286
2314
2314
2328
2264
)
;
    }
    Air_Fluid_to_region11
    {
        type            calculated;
        value           nonuniform List<scalar> 
2166
(
2341
2342
2343
2344
2345
2346
2347
2348
2349
2350
2351
2352
2353
2354
2355
2356
2357
2358
2359
2360
2361
2362
2363
2364
2365
2366
2367
2368
2369
2370
2371
2372
2373
2365
2374
2375
2376
2377
2378
2379
2345
2380
2381
2382
2364
2383
2384
2385
2386
2387
2388
2389
2390
2391
2392
2393
2394
2395
2396
2397
2398
2399
2400
2401
2402
2403
2404
2405
2406
2407
2408
2409
2410
2411
2412
2413
2414
2415
2416
2417
2418
2419
2420
2421
2422
2423
2424
2425
2426
2427
2428
2429
2430
2431
2432
2433
2434
2435
2436
2437
2438
2439
2440
2441
2376
2442
2385
2443
2444
2445
2446
2447
2448
2449
2450
2451
2452
2453
2454
2455
2456
2457
2458
2384
2459
2452
2389
2460
2461
2462
2463
2464
2429
2465
2466
2467
2468
2469
2470
2471
2358
2472
2473
2474
2475
2476
2477
2478
2479
2480
2481
2482
2483
2484
2485
2486
2487
2418
2396
2488
2489
2472
2469
2490
2491
2492
2493
2431
2494
2495
2496
2497
2498
2499
2500
2501
2502
2503
2504
2505
2506
2507
2508
2509
2510
2511
2512
2477
2495
2513
2514
2515
2382
2516
2517
2518
2519
2508
2520
2521
2522
2523
2524
2525
2526
2527
2528
2529
2414
2530
2531
2532
2533
2534
2522
2535
2536
2537
2538
2539
2540
2341
2541
2542
2531
2543
2544
2545
2546
2547
2379
2432
2548
2549
2550
2551
2552
2399
2553
2554
2555
2463
2556
2557
2558
2559
2560
2561
2562
2563
2564
2565
2566
2567
2453
2568
2569
2570
2571
2572
2573
2574
2575
2377
2576
2577
2578
2579
2428
2344
2551
2580
2581
2582
2487
2583
2584
2513
2585
2586
2587
2588
2589
2590
2583
2409
2591
2592
2593
2594
2552
2595
2596
2597
2598
2599
2600
2601
2602
2603
2604
2605
2606
2607
2368
2606
2608
2609
2610
2611
2439
2612
2613
2614
2615
2616
2617
2618
2619
2620
2621
2485
2622
2623
2624
2625
2626
2627
2580
2343
2616
2628
2629
2630
2626
2631
2632
2633
2634
2635
2636
2612
2637
2638
2639
2640
2448
2641
2642
2643
2644
2645
2646
2647
2648
2649
2650
2651
2652
2653
2654
2655
2656
2657
2658
2659
2352
2660
2454
2661
2662
2663
2652
2578
2664
2665
2666
2667
2668
2669
2670
2671
2672
2673
2674
2675
2658
2676
2492
2677
2678
2603
2585
2679
2680
2681
2682
2683
2684
2685
2686
2682
2687
2688
2689
2690
2691
2692
2523
2693
2694
2695
2638
2458
2696
2697
2698
2699
2511
2700
2701
2702
2703
2704
2705
2357
2706
2707
2708
2709
2710
2711
2712
2713
2712
2714
2715
2716
2717
2718
2388
2719
2720
2686
2608
2721
2722
2457
2723
2635
2724
2725
2690
2726
2727
2610
2728
2729
2424
2697
2450
2730
2731
2732
2555
2733
2734
2735
2570
2736
2737
2738
2739
2740
2741
2742
2743
2697
2744
2745
2529
2471
2746
2747
2748
2483
2529
2435
2749
2471
2750
2628
2751
2617
2720
2752
2498
2621
2462
2753
2490
2753
2618
2425
2371
2754
2755
2756
2484
2639
2757
2758
2565
2759
2760
2761
2762
2763
2743
2444
2764
2765
2766
2767
2768
2723
2769
2770
2456
2642
2479
2771
2772
2713
2773
2645
2774
2600
2719
2775
2769
2776
2683
2776
2777
2778
2779
2554
2780
2489
2781
2782
2421
2783
2460
2784
2785
2575
2627
2786
2787
2788
2783
2789
2590
2790
2791
2792
2793
2764
2748
2481
2794
2795
2796
2617
2559
2797
2796
2702
2587
2370
2798
2799
2800
2801
2802
2799
2803
2773
2679
2558
2804
2805
2499
2663
2806
2807
2528
2808
2809
2810
2811
2812
2374
2813
2814
2539
2815
2816
2568
2817
2818
2819
2820
2821
2822
2823
2824
2794
2825
2825
2569
2344
2826
2636
2625
2827
2623
2828
2829
2830
2831
2832
2366
2833
2834
2835
2785
2836
2837
2838
2839
2840
2823
2841
2842
2843
2749
2844
2845
2362
2846
2847
2649
2404
2848
2849
2850
2819
2571
2851
2839
2791
2451
2763
2758
2814
2852
2355
2853
2716
2350
2854
2675
2855
2856
2468
2656
2857
2750
2858
2859
2855
2515
2507
2860
2400
2861
2572
2862
2517
2420
2863
2864
2865
2866
2548
2867
2864
2419
2868
2510
2655
2869
2858
2870
2871
2387
2538
2353
2872
2433
2873
2874
2681
2875
2876
2553
2596
2877
2851
2878
2879
2856
2880
2604
2372
2881
2863
2882
2598
2883
2884
2493
2885
2482
2886
2886
2879
2571
2843
2552
2878
2887
2850
2725
2809
2888
2787
2653
2699
2869
2889
2848
2890
2891
2892
2534
2579
2893
2844
2894
2895
2896
2837
2897
2506
2898
2899
2806
2900
2426
2901
2902
2903
2502
2801
2904
2905
2906
2907
2908
2909
2800
2910
2911
2912
2913
2375
2410
2914
2915
2916
2917
2900
2918
2429
2479
2722
2871
2919
2588
2537
2920
2847
2504
2921
2802
2922
2567
2416
2386
2923
2562
2670
2684
2807
2797
2861
2881
2924
2925
2926
2927
2928
2838
2721
2473
2678
2929
2930
2931
2932
2933
2934
2646
2935
2906
2936
2937
2938
2694
2350
2493
2939
2615
2544
2403
2940
2501
2941
2942
2561
2653
2943
2944
2908
2756
2917
2945
2710
2918
2946
2947
2533
2897
2581
2948
2861
2948
2371
2674
2848
2880
2912
2949
2530
2397
2434
2644
2662
2950
2951
2751
2373
2952
2953
2954
2955
2812
2823
2956
2812
2957
2946
2958
2927
2959
2885
2876
2718
2960
2582
2961
2962
2870
2963
2539
2964
2857
2867
2965
2390
2514
2729
2724