/*--------------------------------*- C++ -*----------------------------------*\
  =========                 |
  \\      /  F ield         | OpenFOAM: The Open Source CFD Toolbox
   \\    /   O peration     | Website:  https://openfoam.org
    \\  /    A nd           | Version:  8
     \\/     M anipulation  |
\*---------------------------------------------------------------------------*/
/*   Windows 32 and 64 bit porting by blueCAPE: http://www.bluecape.com.pt   *\
|  Based on Windows porting (2.0.x v4) by Symscape: http://www.symscape.com   |
\*---------------------------------------------------------------------------*/
FoamFile
{
    version     2.0;
    format      ascii;
    class       volScalarField;
    location    "0/Air_Fluid";
    object      viewFactorField;
}
// * * * * * * * * * * * * * * * * * * * * * * * * * * * * * * * * * * * * * //

dimensions      [0 0 0 0 0 0 0];

internalField   uniform 0;

boundaryField
{
    Inlet
    {
        type            calculated;
        value           uniform 0;
    }
    Outlet
    {
        type            calculated;
        value           uniform 0;
    }
    Air_Boundaries
    {
        type            calculated;
        value           uniform 0;
    }
    Air_Fluid_to_region17
    {
        type            calculated;
        value           nonuniform List<scalar> 
2162
(
0.9436139
1.253125
1.253125
0.9147652
0.9147652
1.229504
1.229504
0.9189211
1.239877
1.000106
0.9937482
0.9757278
1.154415
0.964717
1.242191
1.003166
0
1.038783
1.182909
0.9086352
1.020653
0.9984944
0.9915276
1.146314
1.053673
1.095595
0.9187705
1.008392
1.281775
1.40541
0.9086352
0.9999616
1.170911
1.170696
1.277089
1.365108
0.8998122
1.09635
1.085836
1.153711
1.004567
1.007928
1.505739
1.084242
1.294266
0.994234
1.365883
1.300489
1.016684
1.290431
1.084144
0.9201547
0.9709094
0.8428968
1.092002
1.005493
0.965639
0.9712592
0.9946769
1.451638
0.6561469
0.8428968
0.8921358
1.067947
1.094384
1.255867
1.182909
0.9526332
0
1.003166
1.066182
1.339365
1.275498
1.1979
1.024896
0.9350159
1.218636
1.005493
0.9251556
0.9868823
0.9901238
1.180543
1.788906
1.089689
0.9034184
1.46795
0.8954818
0
1.0023
1.014686
1.131659
0.6896208
0.7001473
0
1.003378
1.00374
1.317609
1.193076
1.270332
1.301773
0.989386
0.8747954
0.9914614
0.896025
1.004572
0.9249472
0.9957539
1.333312
0
1.204665
0.9671192
1.52342
1.054654
1.255152
1.056549
0.8302512
1.007071
1.226603
0.9042094
1.163488
0.9620946
1.085909
0.952397
1.01232
1.143325
0
0.919688
0.9980211
1.090293
0.972856
1.064181
1.128038
0.9042094
1.002257
1.06172
1.023172
1.007071
1.091485
0.9828592
1.056549
0.9867233
1.276446
1.242988
1.0822
1.090293
0.9081291
0.9712592
0.9535343
0.7222333
1.18561
1.227197
1.349012
1.001486
1.108466
1.034272
0.8824139
0.9362389
0
0.9394087
1.00197
1.064452
1.024896
0
0.9802873
1.31729
1.079549
1.005148
0
1.22077
1.260675
0.8847748
1.199645
1.051685
1.085987
0
0.9653034
1.244065
0.9881775
1.076657
0
1.084242
0
1.138567
0.9963887
1.10298
1.35516
1.043295
1.005302
0.9250783
1.073082
1.262113
0.9946769
1.015138
1.092002
1.102894
0.9249472
0.9975872
1.053472
0.9886663
1.084144
1.026103
1.059392
1.256271
1.085229
0.9967971
0.92816
0
1.058101
0
1.002847
1.224287
1.443753
1.004015
1.239877
0.9771394
1.340941
0.9848669
1.059572
1.422581
1.419623
1.540135
0.9961967
0.965639
1.007115
0.9084873
1.185971
0
0
1.096668
1.1979
0
1.166956
0.7185864
1.369408
0.959199
1.058101
1.500583
0.9130887
1.285589
0.7078562
1.054488
1.28945
0.8819751
1.06543
0.8248859
0.9252802
1.159922
0.9963887
1.008717
0.7185864
0.9273428
1.025567
0.9793854
1.087117
1.313435
1.007054
0.9984922
0
1.111852
1.025567
1.316143
1.396022
0.9526332
1.176481
0.8624226
0.8890581
1.029337
1.262113
1.261122
1.273605
0.8690153
0.9280788
0.8784693
1.197745
0
0.9499486
0.8583567
0.8895754
1.412444
1.315823
0.9967157
0.9895266
1.290474
1.286632
0.9964967
1.008717
1.290623
1.094384
1.023476
0.987274
1.261623
1.30694
0.9407859
0.805874
0
1.000495
1.014944
0.9863895
0.7830205
1.145833
1.084351
1.305716
1.166956
1.282726
0.9951627
0.9763756
1.005778
1.371641
0.9308758
1.072314
0.9536936
1.540135
1.266686
0.9677901
0.8921358
0.9536936
0.9150441
1.183402
0.9554087
1.199645
1.073082
1.005148
0.9323941
1.180543
0.9645951
1.349776
0.9201547
0.6537379
0.976544
1.082705
1.001666
0.9863293
1.308542
0.9888424
0.9820879
0.9841855
1.003974
0.972856
0.9893191
0.990268
1.308026
1.007901
1.003974
1.016503
1.006098
0.9535343
1.233536
0.9407859
0.9081291
1.005242
0.976544
0.9085041
1.04732
0.9892071
1.031956
1.054488
1.320855
1.003107
1.09154
1.029049
1.053472
1.103084
0
1.275498
1.017267
0.849394
1.110983
1.50202
1.812924
1.396022
0
1.149948
0.9709094
1.129566
1.270332
1.085987
1.003107
0.9293936
1.328844
1.051443
0.8727275
1.002507
1.22077
1.178672
1.837263
0.9894521
1.097764
0.9887609
0.8727275
0.9996574
0.9728406
1.172011
0.9820879
0.8890581
0.994234
1.257515
1.037864
0.7892419
0.9872134
1.017377
1.313195
1.307007
1.286632
0.9304843
1.076286
0.6153592
1.020653
1.023511
0.9965172
1.32784
1.079421
0.9868823
1.272317
1.341919
0.8878114
1.058488
1.014572
0.952397
1.008225
0
1.50202
0.9947193
1.044644
1.20475
0.8644158
0.8747954
0.9351542
1.138504
1.058488
1.131405
0.9121565
1.062326
1.237547
1.00593
0.9350159
1.254487
0.9125115
1.06079
1.047275
0.9980211
1.266686
1.229121
0.7771509
1.307088
1.004482
1.108466
1.258559
1.203503
1.153276
0.9850852
0.870729
0.9049704
0.9827347
1.022173
1.000173
1.247626
1.131405
1.307575
0
1.28103
1.000106
1.066468
1.059506
1.227197
0.828263
0
1.46795
0.9034184
1.254487
1.096668
1.060331
1.280846
1.349024
0.9975441
1.112068
1.203791
1.329034
1.049275
1.254487
0.8581492
1.176709
1.393036
0
1.202494
1.393036
1.202494
0.9901238
1.389578
1.287074
0.9991791
0.9085352
1.01154
1.046701
1.034503
1.230625
0.6827694
0.5825064
1.371641
1.014944
0.9950933
1.371641
1.055721
0.891792
1.240634
1.380951
1.063102
0.7903583
0.9500979
1.175633
0
1.318444
0.7284819
0.987274
1.076657
0.8519864
1.053638
1.036933
1.036933
1.008392
0.9976944
1.005242
1.003058
1.085229
1.02736
1.186675
0.9931038
1.066909
0.9435219
1.305716
0.9828592
0
1.062097
1.076863
0.9955031
1.00239
1.078782
0.9905239
1.067947
1.063863
1.034785
1.348655
0.9435219
1.327864
1.007928
0.9850852
1.508803
1.327864
1.029699
0.9925822
1.049275
1.113235
1.066468
1.236336
1.085712
0
1.054654
1.013375
1.237962
0.8847748
1.28103
0.9228838
1.287074
1.273605
0.9915702
1.031203
1.118991
1.286783
0.9228838
0.872652
1.394268
1.341919
0.9785293
1.039874
0.8832826
0.9757278
1.812924
1.000495
1.192145
0.9915276
0.7284819
0
1.003205
0.9961817
0
1.127032
1.505739
0.9894521
0.8011508
1.383791
1.389578
1.418107
0.9181858
1.384839
1.112068
1.500583
1.274518
1.183402
1.063102
1.080398
1.146314
1.001496
0.9763756
1.080855
1.00247
0.7830205
1.240634
1.06172
1.038851
1.003205
1.218056
1.312506
1.163383
1.163383
1.218056
1.180675
1.007054
1.244065
1.243168
0.9322099
1.21341
1.009936
1.039436
1.038851
1.024654
1.056485
1.005778
1.277089
1.037564
1.108503
0.9811033
1.508803
1.070553
1.022173
1.261711
1.029337
0
0
1.011858
1.006869
1.183724
1.145457
0.7800231
0
0.9855472
0.9653034
1.238724
1.190001
1.089253
1.059866
1.053876
0.9187705
1.010227
1.001947
1.070553
0.8593017
1.383791
1.315823
1.286783
1.009654
1.313195
0.9251556
1.369408
1.255152
1.26667
0.9863293
1.356833
0.9049704
1.04879
0.9150441
1.04879
1.316389
0.9931038
0.8593017
1.281214
1.301591
1.00593
1.20705
1.002239
1.385123
1.06296
0.9863895
1.078358
0.9424308
1.007115
1.061678
1.258559
0.8248859
0.9971618
1.256271
0.8998122
0
0.9891827
1.009585
1.291167
1.079532
0.6380958
1.029049
1.130593
1.291167
2.0237
1.001496
0
1.396022
0.6985361
1.035391
1.328844
0.6896208
0.9849038
1.002847
0.7237557
1.334394
0.9991386
1.391054
1.080855
1.290474
1.095595
1.089253
1.336485
0
1.248137
1.259645
1.397565
1.316143
1.464607
1.336485
1.01232
0.6953426
1.500583
0.870729
1.505739
0.8356569
0.6964854
0.9731041
0.8228422
1.09635
1.011858
1.405765
1.085178
1.004974
1.000095
1.047721
1.320855
0.99973
1.291986
1.229121
0
1.014492
1.123293
0.5825064
1.145833
1.026625
0.9141948
0
0
1.52342
1.232382
1.344831
1.169459
1.046701
1.062564
1.015138
1.203503
1.257515
1.28945
1.004482
1.000106
0.9696086
0.9130887
1.003058
0
0.8553477
1.221577
0.9252802
0.932344
0.916099
0
1.432403
1.045965
1.045965
1.079549
1.084351
1.118991
1.321918
1.500583
0.9671192
0.9862889
0
1.432403
1.240591
1.087117
1.087658
0.9834707
0.9641519
0.918291
1.113235
0.9827347
1.065124
1.317609
1.295185
0
1.301773
1.312506
1.20705
1.145833
1.034785
1.016684
0.9936619
1.284014
0.941897
1.265466
0
0
1.060331
0.9853552
1.062097
1.00374
1.46795
0.6889425
1.227197
1.037564
0
0.9604307
1.321918
0.9084567
0.9905239
0.7623799
0.9554087
0.7228738
0.9125115
0.9855297
0.9161966
1.247626
0.8686248
0.9085352
0
1.087227
0.9323941
0
0.8519864
0.7800091
0.6329256
1.006135
1.369408
0.989386
0.8308813
1.554246
0.8130644
0
0.9375453
1.078782
1.053181
0
0.9084567
1.082297
1.256271
0.9181858
0.99973
1.264236
1.270397
1.005979
1.108503
1.183724
1.085712
0
0.9984944
0.9849038
1.085229
1.059506
1.295185
1.007928
0
1.260675
0.9964431
0.6329256
1.333312
0.9930951
1.340941
1.318444
1.112439
0.9975872
0.9904638
1.209493
1.039874
0
0.9832816
1.117378
0.988704
0.6985361
1.006869
1.334394
0.9827347
1.005302
1.308542
0.9397907
1.226603
0.9081291
1.190001
1.087227
1.079421
0
0.9641519
1.037774
0.8926342
0.9424308
1.349012
1.176481
1.008717
0.7800231
0.3834916
0.8308813
0.9910723
1.005495
0.9895868
1.313435
0.9734084
1.304002
1.274518
0.9682561
1.170911
1.185971
0.9604307
0.8593017
0
0
1.143325
0.9342575
0
0.9342575
0.8690153
0.8644158
0.9965172
1.004567
0.9499486
1.301591
0
0.9892804
1.275498
1.29259
0.9915702
1.29259
1.082705
1.10298
1.001666
1.464607
1.339365
0.964505
1.004482
0
1.006264
1.397565
1.37645
0.9740069
0
1.002507
1.131659
0.9822357
1.030621
1.038783
0.92816
1.812924
0
1.505739
1.169459
0.8624226
1.175914
1.047275
1.301591
0.8926342
1.192145
1.209493
0.828263
0.9771394
0.9951627
0.9834707
0.7185864
1.072314
0.9984944
1.146042
1.233536
1.053673
1.261623
1.09154
0.9937482
1.20475
1.017267
0.8859125
0.8859125
1.035927
1.118648
0.9440607
1.178672
1.053181
1.035927
0.9322099
1.14875
1.153711
1.09635
1.038783
0.8859125
1.138567
1.024654
0.9976944
1.019575
1.307007
0.8878114
1.308542
0.9991791
0.9308758
1.015138
1.242191
1.837263
1.149948
0.9918399
0.9888424
1.075151
1.236336
1.32784
1.009936
1.433578
1.003166
1.364396
0.9670866
0.9905756
1.003058
1.276446
1.055533
1.005979
0.9500979
1.282726
0.9567077
0.6969802
1.349776
0.7185864
1.01392
1.21341
0.9946769
1.195965
0.9984922
1.175633
1.007305
0
0
1.064546
0.9765026
0.9500979
1.059392
1.031226
0.992721
0.99973
0.9696086
0.9620946
0.99973
0.9905756
1.000106
0.9273428
0.8954818
1.257918
0.9848669
1.087658
1.40541
0.9887609
0.9950933
0
0.8624226
1.001486
0.8011508
1.047721
1.088261
1.264236
1.007901
1.046701
1.023511
0.9923943
1.076081
0.6827694
1.0822
0.9604307
1.418107
0.8817283
1.208831
0
0.9362389
0.8832826
1.422581
1.004015
0.9964431
1.20705
0.9874755
1.064452
0.9670137
1.123293
1.031203
1.316389
1.014686
0.929078
0.8302512
1.077113
1.016688
0.9713046
0.8817283
1.051685
1.053638
1.030621
1.058257
0.9273066
1.131659
1.132349
1.111852
0.7228738
1.274518
1.341919
0
1.055533
1.788906
0.9734084
0.7299119
1.044644
1.380951
1.250561
1.163488
1.385123
2.0237
1.037774
0.9250783
0.9881775
0.8527035
1.405765
1.059866
1.255867
1.132349
1.102894
0.9961817
1.307575
0.9141948
0.9822357
1.076081
1.253179
0.7228738
1.285589
1.419623
0.9752038
1.290431
1.290431
0
1.051443
0
0.9975441
1.00239
1.01154
1.079532
1.010171
0.9036254
0.6953426
1.284014
1.035391
1.2563
1.199942
0.9670866
1.180543
1.153276
0.9975657
0.983563
1.064236
0.6969802
1.199942
0.7237557
1.005495
1.224287
1.238724
1.023476
1.006869
1.01392
0.9895868
1.010171
0.9731041
1.080398
1.209493
1.039436
0.9757278
1.038615
1.365108
1.394268
0
1.002157
1.443753
1.085836
0.9632523
1.37645
1.051685
0
1.00247
1.017725
1.237962
1.113235
1.451638
1.118648
1.253179
0.9500887
1.261711
0.77074
0.7001473
0.9500887
0.8130644
0.8897006
1.248137
0.6153592
1.383791
1.103084
1.066182
1.030621
1.154415
1.4398
1.118991
1.300489
0.7892419
1.031226
1.175914
0
1.15506
0.9802873
0.891792
1.277089
0.8583567
1.237547
1.077113
1.384839
1.06296
0.8784693
1.243168
0.9372269
0.9372269
0.9644283
1.110983
0.9788276
1.128038
1.091743
1.00239
0.9394087
0.9397907
0.932344
0.929078
0.918291
1.186675
1.085909
1.058257
1.294266
1.064236
0.849394
1.315823
0.805874
0.9036254
1.000095
1.131659
1.281214
0.9824163
1.269843
1.269843
1.138504
1.355302
1.18561
1.269843
1.002745
0.9252802
1.084242
0.9867233
0.9904638
1.38732
1.433578
0.9728406
0.8824139
1.321918
0.8686248
0.7078562
1.349024
1.063863
1.30694
1.365883
1.308026
0.9161966
1.15506
0.7081924
0.9984922
1.088261
0.9273066
1.2563
1.35516
1.176709
1.082297
0.9484981
1.172011
1.348655
1.329034
0.9293936
1.253404
1.112439
1.055721
0.9895266
1.128038
0.9855297
1.290623
0.9644283
0.7771509
1.130593
0
1.007305
0.9788276
1.242988
0.9440607
1.197745
1.40541
1.31729
1.078358
1.145457
0
0.9914614
0.972856
1.047275
1.364396
0
0.8138216
1.276446
1.006074
0
1.554246
0
0.9923943
0.9969325
0.9084873
1.047721
0.9793854
1.356833
1.412444
1.065124
1.006135
0
1.000084
1.35516
1.043295
0.9991386
1.082444
1.160621
0.8527035
1.076863
1.159922
0.8819751
0.9304843
1.009713
1.064181
1.005493
1.208831
1.091485
0.9682561
0.9874755
0.9892071
1.443753
1.023511
0.9855297
1.091743
1.38732
1.307088
1.146314
0.941897
1.384839
1.26667
0.9841855
1.079003
0.8722077
1.061627
0.6380958
1.46795
0.9957539
1.079003
1.062564
1.272317
1.112439
0.896025
0.9740112
1.035403
1.259645
1.000258
0.916099
1.016688
0.9362389
1.257918
0.9740069
1.089689
1.315823
0.9863293
0.9534628
0.9534628
1.035403
1.224287
0.7771509
0.9802873
1.419623
1.009585
0.9085041
0.9135509
1.175914
1.270397
1.004572
1.102894
1.002524
0.9121565
1.329034
0.9911231
1.082444
1.097764
1.261122
1.229121
1.170696
1.180675
0.8204135
0
0
0
1.05478
1.05478
0
1.036729
1.040355
0.7030949
0
1.061627
0.7022814
0
1.104111
0
0
0.7064948
0.7064948
0
0.9484981
0.7081924
0.8160393
0
1.253404
0
0.8249722
1.01232
1.023172
1.023172
0.9423969
0.8400329
0.8400329
0.9961967
0.6327997
0.6327997
1.01232
0.9728659
1.038615
0.9423969
0.9728659
1.009713
1.009713
1.056485
1.04732
1.016353
1.016353
1.020938
1.020938
1.034272
1.019575
1.059572
0.9905239
0.9905239
1.064546
0.975133
0.975133
1.064546
0.9749579
0.9670137
0.9749579
0.9670137
0.9920299
0.9894521
1.001131
0.9886663
0.9920299
1.001131
1.000173
0.9865216
1.000173
0.9865216
0.9862889
1.018761
1.018761
1.002847
1.018761
0.9999616
0.9955031
1.009589
0.9832816
0.9866595
0.9967971
1.009589
0.9866595
0.9918399
1.002239
1.002257
0.9961967
0.9873438
0.3834916
0.9873438
0.7751095
1.203791
0
0
0
0
0
1.035403
1.029699
1.008225
0.9659237
0.9659237
0.9975657
1.004105
1.004105
1.054488
1.053876
0.9969325
1.001561
1.001829
1.001561
0.9853552
0.988704
0.9946823
0.9645951
0.9645951
0.8138216
0
0
0
0.8581492
0
0.964717
0.7013802
0.6964854
0
0.7013802
1.199305
0.6889425
1.117378
1.039436
1.013375
1.014492
1.062326
1.013375
1.065124
1.014572
1.017725
0.872652
1.037774
1.183402
1.02736
0.7903583
1.000084
1.000084
0.9567077
0.9887609
0.8160393
1.280846
0.9969325
1.001829
1.002397
1.002157
0.9673543
1.002397
0.9673543
0.9946823
0.9673079
0.9673079
0.9375453
0.9677901
0.9673079
1.002524
0.8249722
0.7800091
0.787411
0.787411
0.8356569
0.8581492
1.017267
0.8201363
0.9923943
1.050722
1.050722
1.031956
1.317609
1.200387
1.024035
1.024035
1.200387
1.0023
0.9860855
0.9860855
1.012778
1.012778
0.9893191
0.9893191
1.075151
0.9936619
0.9936619
1.061678
0.9996574
0.994568
0.994568
1.01154
0.9928683
0.994568
1.005118
1.344831
0.9928683
0.9975626
1.035847
0.9975626
1.305716
1.344831
0.9872134
1.006264
1.035847
0.9967157
0.9964967
0.9891827
0.9891827
0.9930951
0.9981098
1.006527
0.9981098
1.006527
0.9947193
0.9892804
1.006074
1.006074
0.9915276
1.000258
0.9788421
0.9788421
0.9855472
0.990268
0.9752038
0.9632523
1.034503
0.8897006
0.5439187
0.8985819
1.129566
0
0
0
0
0.5439187
1.014233
1.025501
0.9646824
0.8028891
1.025501
1.014233
0.9646824
1.020898
1.017377
0.8895754
0.9882967
0.9812645
1.027791
1.020898
0.9922898
0.9882967
1.034567
1.027791
0.9971618
0.9922898
1.054651
1.034567
0.9971618
1.047847
1.054651
1.047847
1.069901
1.024043
1.024043
1.069901
1.069901
1.005118
1.06079
1.057135
1.057135
0.77074
0.6969802
0.77074
0.7222333
0
1.095485
0.919688
1.095485
1.077113
0.7402416
1.107986
0.8228422
0
0
1.029699
1.077113
1.250561
1.066909
1.007054
0.9987843
0.9982565
0.9987843
0.9929013
0.9929013
0.9713046
0.988552
0.9713046
0.988552
0.988552
0.6537379
0.9785293
1.010227
1.004974
1.006098
0.992721
1.006111
0.7402416
0.6869747
0
1.133899
0.7228738
0
1.085178
0.6763086
0.6763086
0.6763086
1.206642
1.206642
0.9671575
0.9925822
0.9910723
1.002745
0.9989694
0.9989694
1.004974
1.006111
0.9824163
0.9964431
1.003378
0.983563
0.9765026
1.016503
0.9533636
0.9533636
0.9671575
0.9671575
0.9351542
0.9500887
1.001947
0.983563
0.9852098
0.9811033
1.003378
0.9852098
0
0
0
0
0
0
0
0
0
0
0
0
0.9728406
0
0
0
0
0
0
0
0
1.018632
1.018632
0
0.9150669
0.9150669
0
0
0
0
0
0
0
0
0
0
0
0
0
0
0
0
0
0
1.040355
0
0.9911231
0
0
1.180232
0
1.442363
1.026103
1.193076
1.158972
0
1.029027
1.029027
1.009654
0.9081291
1.076286
0.9828354
0.8895754
1.247678
1.247678
1.4398
1.204665
1.00197
0.7030949
0
1.391054
0.7059049
0.7800091
1.026103
0
0.8028891
0.8028891
0.9812645
0.6980347
1.107986
0
1.250561
0.9982565
1.133899
1.311384
0
0
0
1.03895
0
0
0.7751095
0
0
0
0
0
1.218636
0
1.037864
0.8514288
0
0.8153455
0.9453972
0.8722077
0.9150669
0
1.355302
1.442363
1.442363
0.9528114
0.9528114
1.205495
0
1.374691
1.194437
1.236629
0.8808383
0.8808383
1.265466
1.265466
1.264781
1.264781
1.257988
0
0
0
1.236629
1.375898
0.8535168
0.964505
1.320553
1.311384
1.215706
1.215706
1.205495
0.8968727
0.8968727
0.9135509
1.257988
1.127032
1.130008
1.160621
0
0
0
0
1.244044
1.374691
1.002285
1.071391
1.291986
1.291986
1.120287
1.087637
0.9150669
0.8138216
1.195965
1.163301
1.163301
0.9886969
0.9886969
1.146042
1.199305
1.040792
1.040792
0
0
0
0
0
1.221577
0.9450167
0.9450167
0.905288
0.905288
1.130593
0
0
0
0
0
0
0
0
0
0
0.770341
0.770341
0.6561469
1.079609
1.079609
0.7414339
0
0
0
0
0
0
1.074297
1.074297
0.7059049
0.7751095
0
0
0
0
0
0
0
0
0.8985819
0.959199
0
1.158972
0
0
0
0
0
0
1.202151
1.090029
1.355302
1.230625
0
0
0
0
1.206642
0.7402416
1.133899
1.059776
1.059776
0.8160393
1.180232
0.7022814
1.11954
1.11954
0.7022814
0.8535168
0.7299119
0.8514288
0.8701506
0
1.071391
0.6980347
1.010707
1.104111
0.9911231
0.9135509
0.9828354
1.317101
1.317101
1.174273
0
1.224632
1.375898
0.9276028
0.9276028
1.281775
1.281775
0
0
0
0
1.087637
1.06543
0.9445219
0.9445219
0
0
0
1.120287
1.010707
1.002285
0.9355593
0.9355593
1.188732
1.244044
1.130008
1.076104
1.156823
1.057312
1.057312
0
0
0
1.194437
1.163301
0
0
0
0
0.9326036
0.9347452
0.9347452
0.9326036
0
0
0
1.036729
0
0.8204135
0
0
0
0
0
0
0
0
0
0
0
0
1.044148
1.044148
0
0
0
0
0
0
0
0
0
0
0
1.230625
1.090029
0.9189211
0.8153455
1.03895
0.8201363
1.004631
0.9280788
1.004631
0.8249722
1.240591
1.240591
0.8553477
1.11954
0.7030949
1.061627
0.7414339
0
0
0
0
0
0
0
0
0
0
0.8701506
0.932344
1.317101
1.304002
1.188732
0.6869747
1.156823
1.224632
1.320553
1.320553
0.918291
0.9445219
0.9436139
1.14875
1.14875
1.174273
1.076104
0.9453972
1.286883
1.286883
1.253179
0.9740112
0.7623799
0.7623799
0
0
0
1.232382
1.202151
0.9306446
0.9306446
0.932344
0
0
0
0
0
0
0
1.026625
1.026625
0
0
0
)
;
    }
    Air_Fluid_to_region8
    {
        type            calculated;
        value           nonuniform List<scalar> 
2198
(
1.073945
0.9632666
1.079406
0.9163697
1.312991
0.9611115
0.9856093
0.9340233
1.092225
1.054319
0.9167588
0.9724153
0.9340233
0.7922358
0.9022598
1.080208
0.9375454
1.054225
0.921037
1.085646
1.003132
1.113194
1.094508
0.8820288
0.9875515
1.257038
0.957737
1.08723
1.072207
1.03303
0.9182811
1.037333
0.9908096
1.05225
1.029607
0.9591823
0.9955936
1.080208
0.9990837
1.004358
0.9115592
0.7031436
1.076698
1.097932
1.302363
1.091135
0.8963623
1.036152
1.036343
0.8011434
0.8856223
0.9019558
1.007362
1.233409
0.9051384
1.060239
1.207851
0.9184687
0.865164
0.9267985
1.007234
1.127352
0.8511421
0.9865544
0.7113047
1.066321
1.085551
1.233409
1.0557
0.9178225
1.012064
1.008932
1.018488
1.022804
1.003974
0.9883185
0.9377274
0.9944451
0
0.9155231
0.81354
0.9394712
0.9306131
1.269996
1.207851
0.9726713
1.001882
0
0.989367
1.241505
1.012254
1.194443
1.557593
0.9626634
0.9115592
0.7099332
1.302363
0.9576225
0.9469101
0
1.180074
0.9964234
1.057635
0.9516588
0.9469101
0.9923738
0.8352005
1.031994
0.9187002
1.286998
0.9612383
0.9883854
0.9428393
1.033848
1.211103
0.8525082
1.051535
1.025993
0.8908754
1.199
0.9923738
1.046194
0
1.020141
1.01254
0.9051384
1.022804
0.8501731
0.9106565
0.8611772
0.995486
1.076149
0.9506751
1.097932
1.025147
0.9106475
0.9053158
1.03088
1.016629
0.8231886
0.9174752
0.8598316
0.8911212
0.9577207
1.12377
0
1.092056
1.022377
0.9946038
1.050505
1.051413
1.051413
0.9174752
1.001617
0.9376906
1.159725
1.140692
0.9927491
1.004358
1.02364
0.9899399
0.9598055
0.9534945
1.005325
0.6035113
1.118147
0.8903215
0.8864732
0.8729045
0.9550864
0.8148676
1.086122
1.115469
0.8729045
1.140692
0.9506751
1.174684
1.076698
1.211103
1.023595
0.8148061
1.118725
0.8567981
1.018488
0.7514768
0.7682303
1.005459
0.994935
0.8697824
1.081454
0.9941444
0.9344808
1.018902
0.9534945
0.8856223
1.00727
1.057042
0.9889641
1.113302
0.8755887
0.9356774
0.8693972
1.012657
1.050028
0.9863197
0.9577207
0.9770614
0.9270653
0
1.159493
0
0.9919026
0.7048227
0.9375454
0.9224012
0.9154311
1.000642
1.134563
0
0.73581
0.9901104
0.9276272
1.040364
1.03295
0.8525082
1.116018
0.8816197
1.01719
0.9946475
0
1.074883
0.945089
0.9875515
0.8277991
0.9990839
1.116018
0.9267985
1.009368
0.9331651
0.8684646
0.8762709
0.992325
0.9896577
0.9024647
0.982793
0.9654198
0.9926277
1.417013
1.003567
0.9453204
0.9336465
0.8209526
0.9184687
0.9186741
0.9384058
1.370353
0.9919026
0.9911002
1.006604
0.989367
0.9612383
1.0109
0.8127933
0.896921
0.7915585
0.8489568
1.09075
0
0
0.7624142
0.9724153
0
1.332098
0.998754
1.261543
0.8742728
1.152105
1.002988
0
1.003132
0.9773886
1.01197
1.111043
1.053469
0.8903215
0.9918883
1.094371
0.9676542
0.9856093
0.8396272
1.152105
0.8950287
1.022978
1.000707
0.928927
1.100745
1.072207
0.9276272
1.132982
0.9861869
1.310366
0.9864278
1.116653
1.046396
1.194443
0.9044425
1.152105
1.06949
0.9789097
1.085272
1.086122
1.088147
1.069425
0.9974762
1.274126
1.186394
0.8652319
1.247864
0
1.008833
1.186394
1.286998
1.033848
1.02729
1.076692
0.9006102
0.847721
1.025147
0.9776103
1.130435
0.8851123
1.071829
0.9696903
1.073957
0.9648835
1.02667
0.9916871
1.054321
0.9993669
0.9278472
0
0.8851123
1.072133
0.8567981
1.005325
0.9178225
1.043842
1.020548
0
0.9232091
1.120194
1.009447
0.9902124
1.061868
1.120277
1.107748
0.9960921
0
1.002988
0.9626634
0.9644562
0.9726713
1.004279
0
0
0.8489568
0
0.9562503
0.9106475
0.9318287
0.9629984
0.9175562
0.9453204
0.896901
1.390137
1.073814
0.8930006
0.9934958
0.939897
0.9902124
0.8790523
0.8684646
1.015437
0.8638479
0.9733264
0.998754
0.9421054
1.066236
0.9934958
0.9487664
1.10368
0.9044425
1.046382
0.8762634
0
0.9562503
1.00175
1.142263
0.9098321
0.7420798
1.086391
0.9881891
1.159493
1.102117
0.7757438
0.8755887
0.9976664
1.392737
1.071305
1.071305
0.9928424
1.041664
1.006934
1.133185
0
0.9219803
0.9506751
0.9110075
0.9232091
0.9906027
0.9487664
0.8897287
0.7113047
1.046516
0
1.358588
1.092225
1.076089
0.8897471
0.9814678
0.8501731
0.991418
0.7017622
1.159725
0.9019558
1.004575
1.134563
0.945089
0.8598316
0.9941125
0.8360367
1.089826
0.8360367
1.246694
1.054319
1.232461
0.9712295
0.9955936
0.7038572
0.8892461
0.9248889
1.076692
0.9943241
0.8231756
0.6969626
0.9646297
0.8182947
1.000103
0.9574091
0.9024647
0.8538142
1.127882
1.232461
1.004647
1.079953
0.9923832
0.7661403
1.274126
0.9335054
1.102162
0.9283623
0.9337809
0.9282099
0.8574347
1.450594
0.9337809
1.06949
0.9318158
1.176329
0.9171549
0.9907364
1.149729
0.9773886
0.8594839
0.9098143
1.001617
1.184719
1.091135
0
1.374105
0.8526043
0.9881771
0.975718
0.992325
0.9625488
0.7099988
0.9336465
0.9725867
1.084498
0.9100271
0.8911212
1.02012
0
1.032702
0.9080746
1.055016
1.085551
0.9186741
1.058095
1.113302
0.69024
0.991418
0
0.9842872
0.807757
0.9946038
0
0.8704261
1.557593
0.9037161
1.068648
1.310366
0.982164
0.7893975
1.036173
0.945089
1.057778
0.9974762
1.217377
1.262023
1.397514
1.006469
0.9154311
0.9318158
0
1.036343
1.048236
0.9204792
1.181496
0.988324
1.053469
1.081549
0.9654198
1.092056
0.8390383
1.000089
0.8652319
1.116653
1.066284
0.7682303
0.93249
0.8693972
1.008264
1.113357
0.9984311
0.9104448
0.8526043
1.054321
1.094231
0.8531875
1.074963
0.8396272
0.9156166
0.8925719
0.9394712
0.8908737
1.020025
1.094231
0.8526123
1.296432
0.8148061
0.9519795
0
1.008312
0.9814678
0.9217665
0.9355385
1.022902
1.012766
1.275769
0.8742728
0.804591
1.012657
0.928927
0
0.81354
1.02662
1.176329
1.001642
1.020025
1.079541
1.388265
0.8993083
0.7038572
1.013259
0.9108741
0.9089402
1.013077
0.8762634
0.9988556
1.001642
1.118882
1.050505
0.6959733
0.9576225
0.7485896
0.9964234
0.8661825
1.076883
0.9474784
1.007606
1.169833
1.080785
1.002728
0.9641799
0.9550864
0.8908274
0.7104727
1.184719
0.8886828
1.013123
0
0
1.007836
1.374105
0.6035113
0.8999933
1.006935
0.9217665
0
1.02667
0.9888517
0.8354727
1.358872
0.9625488
0.9910088
1.036173
1.016555
0.9827846
0.9858824
0.9028241
1.07741
0.9108741
0.9895722
1.086122
1.051535
0.9957966
0.9821796
1.315648
0.9937144
0.8057612
1.1837
0.9487664
1.016877
1.003567
0.8527325
0.8950546
1.358872
1.040692
0.9630228
1.000103
1.118725
0.975718
0.8552441
0.9379963
1.053031
0.9960921
0.8897471
0.9922641
1.061133
0.7923993
1.279334
0.9998702
0.9888517
0.9187002
0.6232664
1.022572
1.040781
1.027931
1.148228
0.8734342
0.9571819
1.259672
0.9163697
1.102162
0.7017622
1.005395
1.02012
0.8864732
0.8115163
0.9877795
0.8231886
1.083016
1.081454
0.9282693
0.9150685
1.039872
1.002988
1.00175
1.314395
1.063368
1.145929
1.133712
0.9248889
0.8529238
0.7233132
1.037333
0.9098321
1.135069
0.9976664
1.231945
0.7108592
0.7099332
0.9591823
1.123676
0.9511591
0.8697824
0.8992628
1.241505
0.6959733
1.066726
1.05225
0.988324
0.8489568
0.8999933
0.982992
0.8526123
0.9078198
1.025993
1.120277
1.18376
1.337559
0.9945686
0.7923993
1.06221
0.9792238
0.8352005
0.9779286
1.00477
1.094508
1.085646
0.9112903
0.8892461
1.102117
0.8762709
1.191077
1.09075
1.169833
1.062894
0.9504798
0
1.067652
1.086291
1.154812
1.033753
0.951511
0.9861869
1.18376
1.007393
1.113194
0.8658226
0.9917214
0.8665836
0.9901104
1.079694
0.8527325
0.9925572
0
0.988795
1.040692
1.012064
0.9106565
0.8661825
1.079694
1.113357
1.071829
0.9310701
0.9605933
1.10368
0.9006102
1.358588
1.001762
0.9926889
1.017893
0.9629984
1.275769
1.00477
1.006604
0.9769058
0.939897
0.9687213
0.8992628
1.062894
0
0.9920815
1.032884
0
0
0.9912097
0.9150685
1.189659
0.9248889
1.0801
1.0801
1.093379
0.631878
0.9644562
0
0.994935
1.111043
0.9724153
1.038976
0.800658
1.000089
0.9061491
1.073814
1.003031
0.9104448
0.9202929
0.800658
0.8925719
0.9964234
1.006935
0.9078198
0.9968393
0.8016045
0.9398907
1.21508
1.141827
0.8499109
1.088741
0.960409
0.9726713
1.060716
0.9283623
1.079541
0
0.7104727
1.02729
1.062553
0.9779286
0.9951271
0
0
1.032702
0
1.019616
0.9779164
0.8983505
1.018902
1.069425
1.261048
0.9934466
0.9771271
1.180074
1.03303
1.041433
0.8816197
1.387791
0
0.73581
1.001981
0.9949472
0.9696903
0
1.164341
0.991728
0.896901
1.032884
1.100745
0.9051372
0.9951271
1.086391
1.322291
0.905599
1.007393
0.9155231
0.9186903
0.9270653
0
0.9022598
0.9106902
0.9916871
1.0109
0.6232664
0.9648835
0.8983505
1.142263
1.040972
0.8529238
0.9684832
0.8531875
1.115469
1.084498
1.094371
0.9191514
1.242915
0.9818596
0
0
0.982164
1.046396
0.8892461
0.9681005
1.022902
0.960409
1.165601
0.9957966
0.9528143
0.7108592
1.008157
0.8488612
1.09074
0.9800155
0.8704261
0
0
1.176329
0.9219803
0.9648236
0.8499109
0.9905135
0.921037
1.094508
1.022572
0.9061491
0.7915585
0.8897287
1.260946
0.8594839
0.9960921
0.9306131
0.9202929
1.392737
0.9196564
1.014429
1.02012
1.074651
1.046368
0.8538142
1.02662
1.051535
0.9860869
1.01254
0.8840646
1.040781
1.03155
1.013123
1.046516
1.03155
0.8385692
1.022465
1.041433
1.03155
1.121829
0.8385692
1.242915
1.198813
0
0
1.322291
1.141827
0.9051372
1.018984
1.093379
1.149846
0.957737
1.00727
1.1837
1.004279
1.07741
0.9628542
0.824325
1.174684
1.073957
0.8138446
1.051852
1.062076
0
0
0
0.8209526
0.831828
0.8950546
0.7485896
1.038976
0.9920704
0.8574347
1.031202
1.004647
0.9100271
1.165601
0.9356859
1.079953
0.9713107
1.261543
1.132982
1.00727
1.018984
1.039872
1.029607
1.134316
1.09127
0
1.019619
1.013077
1.260497
0.9977739
0.9681005
0.9910088
1.033753
0.9089799
1.450594
0
0.7993849
0.9061491
0.3836049
1.094371
0.896921
0
1.074883
0.8638479
1.397514
0.9089402
1.100362
0.9571819
0
0.9571819
1.01254
0.9725867
0.8972362
1.09074
1.013259
0.9519795
0.7883286
0.9428393
0
0.7883286
1.118147
1.397514
1.217377
1.358087
0.9800155
0.9028241
0.8057612
1.040364
1.060006
1.037333
0.9792238
1.075441
1.112192
0.9927422
1.061133
1.247864
0.7624142
0.9149568
0.9990839
0.9713107
1.017893
1.046194
0.911974
0
1.00124
0
1.260497
1.120194
0.9252957
1.008932
1.152105
1.246694
0.9484032
1.132982
0.8908274
1.068236
1.03295
1.076089
1.058095
1.012148
0.8908754
1.194443
0.7757438
0.9528143
1.182187
0.8231756
0.9865544
0.9646297
0.7233132
1.261048
0.9090721
0.9872054
1.127164
1.279334
1.009368
0.9992399
1.296432
0.9988556
0.8820288
0
1.062553
0.9252957
0.9927491
1.060006
0.9356859
1.269996
0.9835765
0.9474784
0.9923738
1.018032
0.8993083
1.246694
0.9379963
1.001357
0.9990839
0
1.010911
0.9511591
0.881972
0.8840646
0.9182811
0.5076793
1.230926
0.905599
1.223303
0.9356774
0
0
0.8665836
1.055274
1.088147
0.8057612
0.911974
0.8611772
0.9963271
1.312393
0.9636002
0.8924757
0.9889641
0.9156166
1.40416
1.33879
0.8658226
0.6729663
0.9217665
1.025214
0.9204476
1.023595
1.089826
0.8840646
1.065125
0.9344808
0.9098143
0.9883185
1.084488
1.312393
0.9318287
0.7099988
1.072133
0.9112903
1.259672
1.296432
1.33879
0.982793
1.025176
0.9611115
1.264149
0.9089799
1.057635